+ 0.3 2 5 udp 200 ------- 2 163207656.0 4.3 83466 0
- 0.3 2 5 udp 200 ------- 2 163207656.0 4.3 83466 0
r 0.30332 2 5 udp 200 ------- 2 163207656.0 4.3 83466 0
+ 0.30332 5 4 udp 200 ------- 2 163207656.0 4.3 83466 0
- 0.30332 5 4 udp 200 ------- 2 163207656.0 4.3 83466 0
r 0.31412 5 4 udp 200 ------- 2 163207656.0 4.3 83466 0
+ 1 0 4 udp 120 ------- 1 0.0 4.3 1 1
- 1 0 4 udp 120 ------- 1 0.0 4.3 1 1
r 1.003192 0 4 udp 120 ------- 1 0.0 4.3 1 1
+ 1.003192 4 0 udp 300 ------- 0 163207656.0 0.3 1346655536 2
- 1.003192 4 0 udp 300 ------- 0 163207656.0 0.3 1346655536 2
r 1.006672 4 0 udp 300 ------- 0 163207656.0 0.3 1346655536 2
